<?xml version="1.0" encoding="UTF-8"?>

<!-- generated on 2026-03-04 13:59:06 by Eclipse SUMO sumo Version 1.24.0
<sumoConfiguration xmlns:xsi="http://www.w3.org/2001/XMLSchema-instance" xsi:noNamespaceSchemaLocation="http://sumo.dlr.de/xsd/sumoConfiguration.xsd">

    <input>
        <net-file value="C:\Users\Pedro\AppData\Local\Temp\tmpup3m31dz\mapa.net.xml"/>
        <route-files value="C:\Users\Pedro\AppData\Local\Temp\tmpup3m31dz\mapa.rou.xml"/>
    </input>

    <output>
        <emission-output value="emissions.xml"/>
        <emission-output.geo value="true"/>
        <emission-output.step-scaled value="true"/>
        <summary-output value="summary.xml"/>
        <tripinfo-output value="tripinfo.xml"/>
        <statistic-output value="stats.xml"/>
    </output>

    <time>
        <begin value="0"/>
        <end value="500"/>
        <step-length value="0.1"/>
    </time>

    <processing>
        <ignore-route-errors value="true"/>
    </processing>

    <routing>
        <device.rerouting.probability value="1.0"/>
        <device.rerouting.period value="1"/>
        <device.rerouting.pre-period value="0"/>
    </routing>

    <report>
        <no-warnings value="true"/>
    </report>

    <traci_server>
        <remote-port value="55341"/>
    </traci_server>

</sumoConfiguration>
-->

<emission-export xmlns:xsi="http://www.w3.org/2001/XMLSchema-instance" xsi:noNamespaceSchemaLocation="http://sumo.dlr.de/xsd/emission_file.xsd">
    <timestep time="0.00">
        <vehicle id="0" eclass="HBEFA4/PC_petrol_Euro-4" CO2="152.10" CO="0.00" HC="0.00" NOx="0.06" PMx="0.00" fuel="49.31" electricity="0.00" noise="55.94" route="!0" type="DEFAULT_VEHTYPE" waiting="0.00" lane="252687643_0" pos="5.10" speed="0.00" angle="139.98" x="-1.657641" y="42.824828"/>
    </timestep>
    <timestep time="0.10">
        <vehicle id="0" eclass="HBEFA4/PC_petrol_Euro-4" CO2="337.04" CO="0.00" HC="0.00" NOx="0.06" PMx="0.00" fuel="109.25" electricity="0.00" noise="67.17" route="!0" type="DEFAULT_VEHTYPE" waiting="0.00" lane="252687643_0" pos="5.13" speed="0.25" angle="139.98" x="-1.657641" y="42.824828"/>
    </timestep>
    <timestep time="0.20">
        <vehicle id="0" eclass="HBEFA4/PC_petrol_Euro-4" CO2="337.71" CO="0.01" HC="0.00" NOx="0.07" PMx="0.00" fuel="109.47" electricity="0.00" noise="66.80" route="!0" type="DEFAULT_VEHTYPE" waiting="0.00" lane="252687643_0" pos="5.17" speed="0.50" angle="139.98" x="-1.657641" y="42.824828"/>
    </timestep>
    <timestep time="0.30">
        <vehicle id="0" eclass="HBEFA4/PC_petrol_Euro-4" CO2="346.10" CO="0.02" HC="0.00" NOx="0.07" PMx="0.00" fuel="112.19" electricity="0.00" noise="66.89" route="!0" type="DEFAULT_VEHTYPE" waiting="0.00" lane="252687643_0" pos="5.25" speed="0.74" angle="139.98" x="-1.657640" y="42.824827"/>
    </timestep>
    <timestep time="0.40">
        <vehicle id="0" eclass="HBEFA4/PC_petrol_Euro-4" CO2="364.40" CO="0.05" HC="0.00" NOx="0.07" PMx="0.00" fuel="118.13" electricity="0.00" noise="67.49" route="!0" type="DEFAULT_VEHTYPE" waiting="0.00" lane="252687643_0" pos="5.35" speed="0.99" angle="139.98" x="-1.657639" y="42.824826"/>
    </timestep>
    <timestep time="0.50">
        <vehicle id="0" eclass="HBEFA4/PC_petrol_Euro-4" CO2="361.95" CO="0.07" HC="0.00" NOx="0.08" PMx="0.00" fuel="117.33" electricity="0.00" noise="67.00" route="!0" type="DEFAULT_VEHTYPE" waiting="0.00" lane="252687643_0" pos="5.47" speed="1.23" angle="139.98" x="-1.657638" y="42.824826"/>
    </timestep>
    <timestep time="0.60">
        <vehicle id="0" eclass="HBEFA4/PC_petrol_Euro-4" CO2="350.15" CO="0.09" HC="0.00" NOx="0.08" PMx="0.00" fuel="113.51" electricity="0.00" noise="66.12" route="!0" type="DEFAULT_VEHTYPE" waiting="0.00" lane="252687643_0" pos="5.62" speed="1.45" angle="139.98" x="-1.657637" y="42.824825"/>
    </timestep>
    <timestep time="0.70">
        <vehicle id="0" eclass="HBEFA4/PC_petrol_Euro-4" CO2="375.90" CO="0.13" HC="0.00" NOx="0.08" PMx="0.00" fuel="121.86" electricity="0.00" noise="67.06" route="!0" type="DEFAULT_VEHTYPE" waiting="0.00" lane="252687643_0" pos="5.79" speed="1.69" angle="139.98" x="-1.657636" y="42.824823"/>
    </timestep>
    <timestep time="0.80">
        <vehicle id="0" eclass="HBEFA4/PC_petrol_Euro-4" CO2="353.12" CO="0.14" HC="0.00" NOx="0.08" PMx="0.01" fuel="114.47" electricity="0.00" noise="65.75" route="!0" type="DEFAULT_VEHTYPE" waiting="0.00" lane="252687643_0" pos="5.98" speed="1.90" angle="139.98" x="-1.657635" y="42.824822"/>
    </timestep>
    <timestep time="0.90">
        <vehicle id="0" eclass="HBEFA4/PC_petrol_Euro-4" CO2="408.33" CO="0.22" HC="0.00" NOx="0.09" PMx="0.01" fuel="132.37" electricity="0.00" noise="67.93" route="!0" type="DEFAULT_VEHTYPE" waiting="0.00" lane="252687643_0" pos="6.19" speed="2.15" angle="139.98" x="-1.657633" y="42.824821"/>
    </timestep>
    <timestep time="1.00">
        <vehicle id="0" eclass="HBEFA4/PC_petrol_Euro-4" CO2="339.81" CO="0.18" HC="0.00" NOx="0.08" PMx="0.01" fuel="110.16" electricity="0.00" noise="64.76" route="!0" type="DEFAULT_VEHTYPE" waiting="0.00" lane="252687643_0" pos="6.42" speed="2.33" angle="139.98" x="-1.657631" y="42.824819"/>
    </timestep>
    <timestep time="1.10">
        <vehicle id="0" eclass="HBEFA4/PC_petrol_Euro-4" CO2="341.13" CO="0.21" HC="0.00" NOx="0.08" PMx="0.01" fuel="110.58" electricity="0.00" noise="64.67" route="!0" type="DEFAULT_VEHTYPE" waiting="0.00" lane="252687643_0" pos="6.67" speed="2.51" angle="139.98" x="-1.657629" y="42.824817"/>
    </timestep>
    <timestep time="1.20">
        <vehicle id="0" eclass="HBEFA4/PC_petrol_Euro-4" CO2="382.59" CO="0.29" HC="0.00" NOx="0.09" PMx="0.01" fuel="124.02" electricity="0.00" noise="66.20" route="!0" type="DEFAULT_VEHTYPE" waiting="0.00" lane="252687643_0" pos="6.95" speed="2.72" angle="139.98" x="-1.657627" y="42.824815"/>
    </timestep>
    <timestep time="1.30">
        <vehicle id="0" eclass="HBEFA4/PC_petrol_Euro-4" CO2="342.99" CO="0.26" HC="0.00" NOx="0.09" PMx="0.01" fuel="111.19" electricity="0.00" noise="64.48" route="!0" type="DEFAULT_VEHTYPE" waiting="0.00" lane="252687643_0" pos="7.23" speed="2.88" angle="139.98" x="-1.657625" y="42.824813"/>
    </timestep>
    <timestep time="1.40">
        <vehicle id="0" eclass="HBEFA4/PC_petrol_Euro-4" CO2="350.87" CO="0.30" HC="0.00" NOx="0.09" PMx="0.01" fuel="113.74" electricity="0.00" noise="64.67" route="!0" type="DEFAULT_VEHTYPE" waiting="0.00" lane="252687643_0" pos="7.54" speed="3.06" angle="139.98" x="-1.657622" y="42.824811"/>
    </timestep>
    <timestep time="1.50">
        <vehicle id="0" eclass="HBEFA4/PC_petrol_Euro-4" CO2="406.95" CO="0.43" HC="0.00" NOx="0.10" PMx="0.01" fuel="131.92" electricity="0.00" noise="66.64" route="!0" type="DEFAULT_VEHTYPE" waiting="0.00" lane="252687643_0" pos="7.87" speed="3.27" angle="139.98" x="-1.657620" y="42.824809"/>
        <vehicle id="3" eclass="HBEFA4/PC_petrol_Euro-4" CO2="152.10" CO="0.00" HC="0.00" NOx="0.06" PMx="0.00" fuel="49.31" electricity="0.00" noise="55.94" route="!3" type="DEFAULT_VEHTYPE" waiting="0.00" lane="189597344#0_0" pos="5.10" speed="0.00" angle="329.95" x="-1.655156" y="42.822407"/>
    </timestep>
    <timestep time="1.60">
        <vehicle id="0" eclass="HBEFA4/PC_petrol_Euro-4" CO2="322.90" CO="0.31" HC="0.00" NOx="0.09" PMx="0.01" fuel="104.68" electricity="0.00" noise="63.42" route="!0" type="DEFAULT_VEHTYPE" waiting="0.00" lane="252687643_0" pos="8.21" speed="3.41" angle="139.98" x="-1.657617" y="42.824806"/>
        <vehicle id="3" eclass="HBEFA4/PC_petrol_Euro-4" CO2="334.16" CO="0.00" HC="0.00" NOx="0.06" PMx="0.00" fuel="108.32" electricity="0.00" noise="67.01" route="!3" type="DEFAULT_VEHTYPE" waiting="0.00" lane="189597344#0_0" pos="5.12" speed="0.25" angle="329.95" x="-1.655156" y="42.822408"/>
    </timestep>
    <timestep time="1.70">
        <vehicle id="0" eclass="HBEFA4/PC_petrol_Euro-4" CO2="318.30" CO="0.32" HC="0.00" NOx="0.09" PMx="0.01" fuel="103.19" electricity="0.00" noise="63.20" route="!0" type="DEFAULT_VEHTYPE" waiting="0.00" lane="252687643_0" pos="8.56" speed="3.54" angle="139.98" x="-1.657615" y="42.824804"/>
        <vehicle id="3" eclass="HBEFA4/PC_petrol_Euro-4" CO2="332.70" CO="0.01" HC="0.00" NOx="0.07" PMx="0.00" fuel="107.85" electricity="0.00" noise="66.53" route="!3" type="DEFAULT_VEHTYPE" waiting="0.00" lane="189597344#0_0" pos="5.17" speed="0.49" angle="329.95" x="-1.655156" y="42.822408"/>
    </timestep>
    <timestep time="1.80">
        <vehicle id="0" eclass="HBEFA4/PC_petrol_Euro-4" CO2="331.23" CO="0.36" HC="0.00" NOx="0.09" PMx="0.01" fuel="107.38" electricity="0.00" noise="63.60" route="!0" type="DEFAULT_VEHTYPE" waiting="0.00" lane="252687643_0" pos="8.93" speed="3.68" angle="139.98" x="-1.657612" y="42.824801"/>
        <vehicle id="3" eclass="HBEFA4/PC_petrol_Euro-4" CO2="346.89" CO="0.02" HC="0.00" NOx="0.07" PMx="0.00" fuel="112.45" electricity="0.00" noise="66.95" route="!3" type="DEFAULT_VEHTYPE" waiting="0.00" lane="189597344#0_0" pos="5.25" speed="0.73" angle="329.95" x="-1.655157" y="42.822409"/>
    </timestep>
    <timestep time="1.90">
        <vehicle id="0" eclass="HBEFA4/PC_petrol_Euro-4" CO2="328.67" CO="0.38" HC="0.00" NOx="0.09" PMx="0.01" fuel="106.55" electricity="0.00" noise="63.46" route="!0" type="DEFAULT_VEHTYPE" waiting="0.00" lane="252687643_0" pos="9.31" speed="3.82" angle="139.98" x="-1.657609" y="42.824799"/>
        <vehicle id="3" eclass="HBEFA4/PC_petrol_Euro-4" CO2="335.39" CO="0.04" HC="0.00" NOx="0.07" PMx="0.00" fuel="108.72" electricity="0.00" noise="66.00" route="!3" type="DEFAULT_VEHTYPE" waiting="0.00" lane="189597344#0_0" pos="5.34" speed="0.95" angle="329.95" x="-1.655157" y="42.822409"/>
    </timestep>
    <timestep time="2.00">
        <vehicle id="0" eclass="HBEFA4/PC_petrol_Euro-4" CO2="373.76" CO="0.51" HC="0.00" NOx="0.10" PMx="0.01" fuel="121.17" electricity="0.00" noise="64.93" route="!0" type="DEFAULT_VEHTYPE" waiting="0.00" lane="252687643_0" pos="9.71" speed="3.99" angle="139.98" x="-1.657606" y="42.824796"/>
        <vehicle id="3" eclass="HBEFA4/PC_petrol_Euro-4" CO2="341.36" CO="0.06" HC="0.00" NOx="0.07" PMx="0.00" fuel="110.66" electricity="0.00" noise="66.03" route="!3" type="DEFAULT_VEHTYPE" waiting="0.00" lane="189597344#0_0" pos="5.46" speed="1.17" angle="329.95" x="-1.655158" y="42.822410"/>
        <vehicle id="4" eclass="HBEFA4/PC_petrol_Euro-4" CO2="152.10" CO="0.00" HC="0.00" NOx="0.06" PMx="0.00" fuel="49.31" electricity="0.00" noise="55.94" route="!4" type="DEFAULT_VEHTYPE" waiting="0.00" lane="-189597344#1_0" pos="5.10" speed="0.00" angle="143.91" x="-1.656179" y="42.823555"/>
    </timestep>
    <timestep time="2.10">
        <vehicle id="0" eclass="HBEFA4/PC_petrol_Euro-4" CO2="342.04" CO="0.46" HC="0.00" NOx="0.09" PMx="0.01" fuel="110.88" electricity="0.00" noise="63.80" route="!0" type="DEFAULT_VEHTYPE" waiting="0.00" lane="252687643_0" pos="10.12" speed="4.13" angle="139.98" x="-1.657603" y="42.824793"/>
        <vehicle id="3" eclass="HBEFA4/PC_petrol_Euro-4" CO2="342.53" CO="0.08" HC="0.00" NOx="0.08" PMx="0.00" fuel="111.04" electricity="0.00" noise="65.83" route="!3" type="DEFAULT_VEHTYPE" waiting="0.00" lane="189597344#0_0" pos="5.60" speed="1.38" angle="329.95" x="-1.655159" y="42.822411"/>
        <vehicle id="4" eclass="HBEFA4/PC_petrol_Euro-4" CO2="335.85" CO="0.00" HC="0.00" NOx="0.06" PMx="0.00" fuel="108.87" electricity="0.00" noise="67.11" route="!4" type="DEFAULT_VEHTYPE" waiting="0.00" lane="-189597344#1_0" pos="5.13" speed="0.25" angle="143.91" x="-1.656179" y="42.823555"/>
    </timestep>
    <timestep time="2.20">
        <vehicle id="0" eclass="HBEFA4/PC_petrol_Euro-4" CO2="474.95" CO="0.85" HC="0.01" NOx="0.12" PMx="0.01" fuel="153.97" electricity="0.00" noise="68.03" route="!0" type="DEFAULT_VEHTYPE" waiting="0.00" lane="252687643_0" pos="10.56" speed="4.36" angle="139.98" x="-1.657599" y="42.824790"/>
        <vehicle id="3" eclass="HBEFA4/PC_petrol_Euro-4" CO2="376.31" CO="0.12" HC="0.00" NOx="0.08" PMx="0.00" fuel="121.99" electricity="0.00" noise="67.17" route="!3" type="DEFAULT_VEHTYPE" waiting="0.00" lane="189597344#0_0" pos="5.76" speed="1.62" angle="329.95" x="-1.655160" y="42.822413"/>
        <vehicle id="4" eclass="HBEFA4/PC_petrol_Euro-4" CO2="349.55" CO="0.01" HC="0.00" NOx="0.07" PMx="0.00" fuel="113.31" electricity="0.00" noise="67.46" route="!4" type="DEFAULT_VEHTYPE" waiting="0.00" lane="-189597344#1_0" pos="5.18" speed="0.51" angle="143.91" x="-1.656178" y="42.823555"/>
    </timestep>
    <timestep time="2.30">
        <vehicle id="0" eclass="HBEFA4/PC_petrol_Euro-4" CO2="360.77" CO="0.58" HC="0.00" NOx="0.10" PMx="0.01" fuel="116.95" electricity="0.00" noise="64.26" route="!0" type="DEFAULT_VEHTYPE" waiting="0.00" lane="252687643_0" pos="11.01" speed="4.51" angle="139.98" x="-1.657596" y="42.824787"/>
        <vehicle id="3" eclass="HBEFA4/PC_petrol_Euro-4" CO2="379.02" CO="0.15" HC="0.00" NOx="0.08" PMx="0.01" fuel="122.87" electricity="0.00" noise="66.99" route="!3" type="DEFAULT_VEHTYPE" waiting="0.00" lane="189597344#0_0" pos="5.95" speed="1.86" angle="329.95" x="-1.655161" y="42.822414"/>
        <vehicle id="4" eclass="HBEFA4/PC_petrol_Euro-4" CO2="345.18" CO="0.02" HC="0.00" NOx="0.07" PMx="0.00" fuel="111.89" electricity="0.00" noise="66.82" route="!4" type="DEFAULT_VEHTYPE" waiting="0.00" lane="-189597344#1_0" pos="5.25" speed="0.75" angle="143.91" x="-1.656178" y="42.823554"/>
    </timestep>
    <timestep time="2.40">
        <vehicle id="0" eclass="HBEFA4/PC_petrol_Euro-4" CO2="459.07" CO="0.90" HC="0.01" NOx="0.12" PMx="0.01" fuel="148.82" electricity="0.00" noise="67.23" route="!0" type="DEFAULT_VEHTYPE" waiting="0.00" lane="252687643_0" pos="11.48" speed="4.72" angle="139.98" x="-1.657592" y="42.824783"/>
        <vehicle id="3" eclass="HBEFA4/PC_petrol_Euro-4" CO2="374.28" CO="0.18" HC="0.00" NOx="0.08" PMx="0.01" fuel="121.33" electricity="0.00" noise="66.51" route="!3" type="DEFAULT_VEHTYPE" waiting="0.00" lane="189597344#0_0" pos="6.15" speed="2.08" angle="329.95" x="-1.655162" y="42.822416"/>
        <vehicle id="4" eclass="HBEFA4/PC_petrol_Euro-4" CO2="364.47" CO="0.05" HC="0.00" NOx="0.07" PMx="0.00" fuel="118.15" electricity="0.00" noise="67.47" route="!4" type="DEFAULT_VEHTYPE" waiting="0.00" lane="-189597344#1_0" pos="5.35" speed="1.00" angle="143.91" x="-1.656177" y="42.823553"/>
    </timestep>
    <timestep time="2.50">
        <vehicle id="0" eclass="HBEFA4/PC_petrol_Euro-4" CO2="379.98" CO="0.71" HC="0.00" NOx="0.10" PMx="0.01" fuel="123.18" electricity="0.00" noise="64.71" route="!0" type="DEFAULT_VEHTYPE" waiting="0.00" lane="252687643_0" pos="11.97" speed="4.88" angle="139.98" x="-1.657588" y="42.824780"/>
        <vehicle id="3" eclass="HBEFA4/PC_petrol_Euro-4" CO2="358.19" CO="0.19" HC="0.00" NOx="0.08" PMx="0.01" fuel="116.12" electricity="0.00" noise="65.59" route="!3" type="DEFAULT_VEHTYPE" waiting="0.00" lane="189597344#0_0" pos="6.38" speed="2.28" angle="329.95" x="-1.655164" y="42.822417"/>
        <vehicle id="4" eclass="HBEFA4/PC_petrol_Euro-4" CO2="328.26" CO="0.05" HC="0.00" NOx="0.07" PMx="0.00" fuel="106.41" electricity="0.00" noise="65.31" route="!4" type="DEFAULT_VEHTYPE" waiting="0.00" lane="-189597344#1_0" pos="5.47" speed="1.21" angle="143.91" x="-1.656176" y="42.823552"/>
    </timestep>
    <timestep time="2.60">
        <vehicle id="0" eclass="HBEFA4/PC_petrol_Euro-4" CO2="429.13" CO="0.90" HC="0.01" NOx="0.12" PMx="0.02" fuel="139.12" electricity="0.00" noise="66.10" route="!0" type="DEFAULT_VEHTYPE" waiting="0.00" lane="252687643_0" pos="12.47" speed="5.06" angle="139.98" x="-1.657584" y="42.824777"/>
        <vehicle id="3" eclass="HBEFA4/PC_petrol_Euro-4" CO2="399.24" CO="0.27" HC="0.00" NOx="0.09" PMx="0.01" fuel="129.42" electricity="0.00" noise="67.10" route="!3" type="DEFAULT_VEHTYPE" waiting="0.00" lane="189597344#0_0" pos="6.63" speed="2.51" angle="329.95" x="-1.655165" y="42.822419"/>
        <vehicle id="4" eclass="HBEFA4/PC_petrol_Euro-4" CO2="325.69" CO="0.07" HC="0.00" NOx="0.07" PMx="0.00" fuel="105.58" electricity="0.00" noise="64.97" route="!4" type="DEFAULT_VEHTYPE" waiting="0.00" lane="-189597344#1_0" pos="5.61" speed="1.40" angle="143.91" x="-1.656175" y="42.823551"/>
    </timestep>
    <timestep time="2.70">
        <vehicle id="0" eclass="HBEFA4/PC_petrol_Euro-4" CO2="540.64" CO="1.35" HC="0.01" NOx="0.14" PMx="0.02" fuel="175.27" electricity="0.00" noise="69.20" route="!0" type="DEFAULT_VEHTYPE" waiting="0.00" lane="252687643_0" pos="13.01" speed="5.31" angle="139.98" x="-1.657580" y="42.824773"/>
        <vehicle id="1" eclass="HBEFA4/PC_petrol_Euro-4" CO2="152.10" CO="0.00" HC="0.00" NOx="0.06" PMx="0.00" fuel="49.31" electricity="0.00" noise="55.94" route="!1" type="DEFAULT_VEHTYPE" waiting="0.00" lane="252687643_0" pos="5.10" speed="0.00" angle="139.98" x="-1.657641" y="42.824828"/>
        <vehicle id="3" eclass="HBEFA4/PC_petrol_Euro-4" CO2="422.41" CO="0.35" HC="0.00" NOx="0.10" PMx="0.01" fuel="136.93" electricity="0.00" noise="67.77" route="!3" type="DEFAULT_VEHTYPE" waiting="0.00" lane="189597344#0_0" pos="6.91" speed="2.76" angle="329.95" x="-1.655167" y="42.822422"/>
        <vehicle id="4" eclass="HBEFA4/PC_petrol_Euro-4" CO2="328.10" CO="0.09" HC="0.00" NOx="0.08" PMx="0.00" fuel="106.36" electricity="0.00" noise="64.89" route="!4" type="DEFAULT_VEHTYPE" waiting="0.00" lane="-189597344#1_0" pos="5.77" speed="1.59" angle="143.91" x="-1.656174" y="42.823550"/>
    </timestep>
    <timestep time="2.80">
        <vehicle id="0" eclass="HBEFA4/PC_petrol_Euro-4" CO2="547.26" CO="1.47" HC="0.01" NOx="0.14" PMx="0.02" fuel="177.41" electricity="0.00" noise="69.18" route="!0" type="DEFAULT_VEHTYPE" waiting="0.00" lane="252687643_0" pos="13.56" speed="5.56" angle="139.98" x="-1.657576" y="42.824769"/>
        <vehicle id="1" eclass="HBEFA4/PC_petrol_Euro-4" CO2="340.62" CO="0.00" HC="0.00" NOx="0.06" PMx="0.00" fuel="110.42" electricity="0.00" noise="67.38" route="!1" type="DEFAULT_VEHTYPE" waiting="0.00" lane="252687643_0" pos="5.13" speed="0.26" angle="139.98" x="-1.657641" y="42.824828"/>
        <vehicle id="3" eclass="HBEFA4/PC_petrol_Euro-4" CO2="434.32" CO="0.42" HC="0.00" NOx="0.10" PMx="0.01" fuel="140.79" electricity="0.00" noise="67.96" route="!3" type="DEFAULT_VEHTYPE" waiting="0.00" lane="189597344#0_0" pos="7.21" speed="3.00" angle="329.95" x="-1.655168" y="42.822424"/>
        <vehicle id="4" eclass="HBEFA4/PC_petrol_Euro-4" CO2="393.23" CO="0.16" HC="0.00" NOx="0.08" PMx="0.01" fuel="127.47" electricity="0.00" noise="67.67" route="!4" type="DEFAULT_VEHTYPE" waiting="0.00" lane="-189597344#1_0" pos="5.95" speed="1.84" angle="143.91" x="-1.656173" y="42.823549"/>
    </timestep>
    <timestep time="2.90">
        <vehicle id="0" eclass="HBEFA4/PC_petrol_Euro-4" CO2="529.85" CO="1.49" HC="0.01" NOx="0.14" PMx="0.02" fuel="171.77" electricity="0.00" noise="68.51" route="!0" type="DEFAULT_VEHTYPE" waiting="0.00" lane="252687643_0" pos="14.14" speed="5.79" angle="139.98" x="-1.657571" y="42.824765"/>
        <vehicle id="1" eclass="HBEFA4/PC_petrol_Euro-4" CO2="347.06" CO="0.01" HC="0.00" NOx="0.07" PMx="0.00" fuel="112.50" electricity="0.00" noise="67.32" route="!1" type="DEFAULT_VEHTYPE" waiting="0.00" lane="252687643_0" pos="5.18" speed="0.51" angle="139.98" x="-1.657641" y="42.824828"/>
        <vehicle id="3" eclass="HBEFA4/PC_petrol_Euro-4" CO2="417.27" CO="0.44" HC="0.00" NOx="0.10" PMx="0.01" fuel="135.27" electricity="0.00" noise="67.07" route="!3" type="DEFAULT_VEHTYPE" waiting="0.00" lane="189597344#0_0" pos="7.53" speed="3.23" angle="329.95" x="-1.655170" y="42.822426"/>
        <vehicle id="4" eclass="HBEFA4/PC_petrol_Euro-4" CO2="349.59" CO="0.15" HC="0.00" NOx="0.08" PMx="0.01" fuel="113.33" electricity="0.00" noise="65.45" route="!4" type="DEFAULT_VEHTYPE" waiting="0.00" lane="-189597344#1_0" pos="6.16" speed="2.04" angle="143.91" x="-1.656171" y="42.823547"/>
    </timestep>
    <timestep time="3.00">
        <vehicle id="0" eclass="HBEFA4/PC_petrol_Euro-4" CO2="422.72" CO="1.11" HC="0.01" NOx="0.12" PMx="0.02" fuel="137.04" electricity="0.00" noise="65.52" route="!0" type="DEFAULT_VEHTYPE" waiting="0.00" lane="252687643_0" pos="14.74" speed="5.96" angle="139.98" x="-1.657567" y="42.824761"/>
        <vehicle id="1" eclass="HBEFA4/PC_petrol_Euro-4" CO2="360.90" CO="0.03" HC="0.00" NOx="0.07" PMx="0.00" fuel="116.99" electricity="0.00" noise="67.66" route="!1" type="DEFAULT_VEHTYPE" waiting="0.00" lane="252687643_0" pos="5.25" speed="0.77" angle="139.98" x="-1.657640" y="42.824827"/>
        <vehicle id="3" eclass="HBEFA4/PC_petrol_Euro-4" CO2="370.84" CO="0.39" HC="0.00" NOx="0.09" PMx="0.01" fuel="120.22" electricity="0.00" noise="65.18" route="!3" type="DEFAULT_VEHTYPE" waiting="0.00" lane="189597344#0_0" pos="7.87" speed="3.41" angle="329.95" x="-1.655172" y="42.822429"/>
        <vehicle id="4" eclass="HBEFA4/PC_petrol_Euro-4" CO2="420.13" CO="0.25" HC="0.00" NOx="0.09" PMx="0.01" fuel="136.19" electricity="0.00" noise="68.25" route="!4" type="DEFAULT_VEHTYPE" waiting="0.00" lane="-189597344#1_0" pos="6.39" speed="2.30" angle="143.91" x="-1.656170" y="42.823546"/>
    </timestep>
    <timestep time="3.10">
        <vehicle id="0" eclass="HBEFA4/PC_petrol_Euro-4" CO2="573.15" CO="1.82" HC="0.01" NOx="0.16" PMx="0.02" fuel="185.80" electricity="0.00" noise="69.36" route="!0" type="DEFAULT_VEHTYPE" waiting="0.00" lane="252687643_0" pos="15.36" speed="6.20" angle="140.60" x="-1.657563" y="42.824756"/>
        <vehicle id="1" eclass="HBEFA4/PC_petrol_Euro-4" CO2="363.21" CO="0.05" HC="0.00" NOx="0.07" PMx="0.00" fuel="117.74" electricity="0.00" noise="67.38" route="!1" type="DEFAULT_VEHTYPE" waiting="0.00" lane="252687643_0" pos="5.36" speed="1.02" angle="139.98" x="-1.657639" y="42.824826"/>
        <vehicle id="3" eclass="HBEFA4/PC_petrol_Euro-4" CO2="428.15" CO="0.55" HC="0.00" NOx="0.10" PMx="0.01" fuel="138.80" electricity="0.00" noise="67.09" route="!3" type="DEFAULT_VEHTYPE" waiting="0.00" lane="189597344#0_0" pos="8.23" speed="3.63" angle="329.95" x="-1.655175" y="42.822432"/>
        <vehicle id="4" eclass="HBEFA4/PC_petrol_Euro-4" CO2="387.12" CO="0.26" HC="0.00" NOx="0.09" PMx="0.01" fuel="125.49" electricity="0.00" noise="66.58" route="!4" type="DEFAULT_VEHTYPE" waiting="0.00" lane="-189597344#1_0" pos="6.64" speed="2.52" angle="143.91" x="-1.656168" y="42.823544"/>
    </timestep>
    <timestep time="3.20">
        <vehicle id="0" eclass="HBEFA4/PC_petrol_Euro-4" CO2="475.57" CO="1.46" HC="0.01" NOx="0.13" PMx="0.02" fuel="154.17" electricity="0.00" noise="66.73" route="!0" type="DEFAULT_VEHTYPE" waiting="0.00" lane="252687643_0" pos="16.00" speed="6.39" angle="141.33" x="-1.657558" y="42.824751"/>
        <vehicle id="1" eclass="HBEFA4/PC_petrol_Euro-4" CO2="352.12" CO="0.07" HC="0.00" NOx="0.07" PMx="0.00" fuel="114.14" electricity="0.00" noise="66.47" route="!1" type="DEFAULT_VEHTYPE" waiting="0.00" lane="252687643_0" pos="5.48" speed="1.25" angle="139.98" x="-1.657638" y="42.824825"/>
        <vehicle id="3" eclass="HBEFA4/PC_petrol_Euro-4" CO2="347.66" CO="0.41" HC="0.00" NOx="0.09" PMx="0.01" fuel="112.70" electricity="0.00" noise="64.14" route="!3" type="DEFAULT_VEHTYPE" waiting="0.00" lane="189597344#0_0" pos="8.61" speed="3.78" angle="329.95" x="-1.655177" y="42.822435"/>
        <vehicle id="4" eclass="HBEFA4/PC_petrol_Euro-4" CO2="328.07" CO="0.22" HC="0.00" NOx="0.08" PMx="0.01" fuel="106.35" electricity="0.00" noise="64.01" route="!4" type="DEFAULT_VEHTYPE" waiting="0.00" lane="-189597344#1_0" pos="6.91" speed="2.68" angle="143.91" x="-1.656166" y="42.823542"/>
    </timestep>
    <timestep time="3.30">
        <vehicle id="0" eclass="HBEFA4/PC_petrol_Euro-4" CO2="413.51" CO="1.22" HC="0.01" NOx="0.12" PMx="0.02" fuel="134.05" electricity="0.00" noise="65.12" route="!0" type="DEFAULT_VEHTYPE" waiting="0.00" lane="252687643_0" pos="16.65" speed="6.53" angle="142.07" x="-1.657554" y="42.824746"/>
        <vehicle id="1" eclass="HBEFA4/PC_petrol_Euro-4" CO2="355.70" CO="0.09" HC="0.00" NOx="0.08" PMx="0.00" fuel="115.31" electricity="0.00" noise="66.36" route="!1" type="DEFAULT_VEHTYPE" waiting="0.00" lane="252687643_0" pos="5.63" speed="1.48" angle="139.98" x="-1.657637" y="42.824824"/>
        <vehicle id="3" eclass="HBEFA4/PC_petrol_Euro-4" CO2="350.94" CO="0.45" HC="0.00" NOx="0.09" PMx="0.01" fuel="113.77" electricity="0.00" noise="64.18" route="!3" type="DEFAULT_VEHTYPE" waiting="0.00" lane="189597344#0_0" pos="9.01" speed="3.93" angle="329.95" x="-1.655179" y="42.822438"/>
        <vehicle id="4" eclass="HBEFA4/PC_petrol_Euro-4" CO2="334.71" CO="0.25" HC="0.00" NOx="0.08" PMx="0.01" fuel="108.50" electricity="0.00" noise="64.18" route="!4" type="DEFAULT_VEHTYPE" waiting="0.00" lane="-189597344#1_0" pos="7.19" speed="2.84" angle="143.91" x="-1.656164" y="42.823540"/>
    </timestep>
    <timestep time="3.40">
        <vehicle id="0" eclass="HBEFA4/PC_petrol_Euro-4" CO2="399.49" CO="1.19" HC="0.01" NOx="0.12" PMx="0.02" fuel="129.51" electricity="0.00" noise="64.76" route="!0" type="DEFAULT_VEHTYPE" waiting="0.00" lane="252687643_0" pos="17.32" speed="6.67" angle="142.84" x="-1.657549" y="42.824741"/>
        <vehicle id="1" eclass="HBEFA4/PC_petrol_Euro-4" CO2="354.85" CO="0.11" HC="0.00" NOx="0.08" PMx="0.00" fuel="115.03" electricity="0.00" noise="66.06" route="!1" type="DEFAULT_VEHTYPE" waiting="0.00" lane="252687643_0" pos="5.80" speed="1.69" angle="139.98" x="-1.657636" y="42.824823"/>
        <vehicle id="3" eclass="HBEFA4/PC_petrol_Euro-4" CO2="413.63" CO="0.63" HC="0.00" NOx="0.11" PMx="0.01" fuel="134.09" electricity="0.00" noise="66.19" route="!3" type="DEFAULT_VEHTYPE" waiting="0.00" lane="189597344#0_0" pos="9.42" speed="4.13" angle="329.95" x="-1.655182" y="42.822441"/>
        <vehicle id="4" eclass="HBEFA4/PC_petrol_Euro-4" CO2="349.17" CO="0.29" HC="0.00" NOx="0.09" PMx="0.01" fuel="113.19" electricity="0.00" noise="64.63" route="!4" type="DEFAULT_VEHTYPE" waiting="0.00" lane="-189597344#1_0" pos="7.49" speed="3.01" angle="143.91" x="-1.656162" y="42.823538"/>
    </timestep>
    <timestep time="3.50">
        <vehicle id="0" eclass="HBEFA4/PC_petrol_Euro-4" CO2="499.40" CO="1.72" HC="0.01" NOx="0.14" PMx="0.02" fuel="161.90" electricity="0.00" noise="67.11" route="!0" type="DEFAULT_VEHTYPE" waiting="0.00" lane="252687643_0" pos="18.00" speed="6.86" angle="143.62" x="-1.657545" y="42.824736"/>
        <vehicle id="1" eclass="HBEFA4/PC_petrol_Euro-4" CO2="323.81" CO="0.11" HC="0.00" NOx="0.08" PMx="0.01" fuel="104.97" electricity="0.00" noise="64.43" route="!1" type="DEFAULT_VEHTYPE" waiting="0.00" lane="252687643_0" pos="5.99" speed="1.87" angle="139.98" x="-1.657634" y="42.824822"/>
        <vehicle id="3" eclass="HBEFA4/PC_petrol_Euro-4" CO2="334.39" CO="0.46" HC="0.00" NOx="0.09" PMx="0.01" fuel="108.40" electricity="0.00" noise="63.50" route="!3" type="DEFAULT_VEHTYPE" waiting="0.00" lane="189597344#0_0" pos="9.84" speed="4.26" angle="329.95" x="-1.655184" y="42.822445"/>
        <vehicle id="4" eclass="HBEFA4/PC_petrol_Euro-4" CO2="419.07" CO="0.44" HC="0.00" NOx="0.10" PMx="0.01" fuel="135.85" electricity="0.00" noise="67.13" route="!4" type="DEFAULT_VEHTYPE" waiting="0.00" lane="-189597344#1_0" pos="7.82" speed="3.24" angle="143.91" x="-1.656160" y="42.823535"/>
    </timestep>
    <timestep time="3.60">
        <vehicle id="0" eclass="HBEFA4/PC_petrol_Euro-4" CO2="548.59" CO="2.04" HC="0.01" NOx="0.16" PMx="0.02" fuel="177.84" electricity="0.00" noise="68.19" route="!0" type="DEFAULT_VEHTYPE" waiting="0.00" lane="252687643_0" pos="18.71" speed="7.07" angle="144.42" x="-1.657540" y="42.824731"/>
        <vehicle id="1" eclass="HBEFA4/PC_petrol_Euro-4" CO2="409.99" CO="0.21" HC="0.00" NOx="0.09" PMx="0.01" fuel="132.91" electricity="0.00" noise="68.04" route="!1" type="DEFAULT_VEHTYPE" waiting="0.00" lane="252687643_0" pos="6.20" speed="2.12" angle="139.98" x="-1.657633" y="42.824820"/>
        <vehicle id="3" eclass="HBEFA4/PC_petrol_Euro-4" CO2="390.33" CO="0.64" HC="0.00" NOx="0.10" PMx="0.01" fuel="126.54" electricity="0.00" noise="65.24" route="!3" type="DEFAULT_VEHTYPE" waiting="0.00" lane="189597344#0_0" pos="10.29" speed="4.43" angle="329.95" x="-1.655187" y="42.822448"/>
        <vehicle id="4" eclass="HBEFA4/PC_petrol_Euro-4" CO2="319.19" CO="0.30" HC="0.00" NOx="0.09" PMx="0.01" fuel="103.47" electricity="0.00" noise="63.30" route="!4" type="DEFAULT_VEHTYPE" waiting="0.00" lane="-189597344#1_0" pos="8.15" speed="3.37" angle="143.91" x="-1.656157" y="42.823533"/>
    </timestep>
    <timestep time="3.70">
        <vehicle id="0" eclass="HBEFA4/PC_petrol_Euro-4" CO2="495.89" CO="1.84" HC="0.01" NOx="0.15" PMx="0.02" fuel="160.76" electricity="0.00" noise="66.88" route="!0" type="DEFAULT_VEHTYPE" waiting="0.00" lane="252687643_0" pos="19.43" speed="7.25" angle="145.25" x="-1.657535" y="42.824725"/>
        <vehicle id="1" eclass="HBEFA4/PC_petrol_Euro-4" CO2="397.01" CO="0.24" HC="0.00" NOx="0.09" PMx="0.01" fuel="128.70" electricity="0.00" noise="67.18" route="!1" type="DEFAULT_VEHTYPE" waiting="0.00" lane="252687643_0" pos="6.43" speed="2.36" angle="139.98" x="-1.657631" y="42.824819"/>
        <vehicle id="3" eclass="HBEFA4/PC_petrol_Euro-4" CO2="521.13" CO="1.07" HC="0.01" NOx="0.13" PMx="0.01" fuel="168.94" electricity="0.00" noise="69.20" route="!3" type="DEFAULT_VEHTYPE" waiting="0.00" lane="189597344#0_0" pos="10.76" speed="4.69" angle="329.95" x="-1.655190" y="42.822452"/>
        <vehicle id="4" eclass="HBEFA4/PC_petrol_Euro-4" CO2="386.62" CO="0.45" HC="0.00" NOx="0.10" PMx="0.01" fuel="125.33" electricity="0.00" noise="65.65" route="!4" type="DEFAULT_VEHTYPE" waiting="0.00" lane="-189597344#1_0" pos="8.51" speed="3.56" angle="143.91" x="-1.656155" y="42.823530"/>
    </timestep>
    <timestep time="3.80">