<?xml version="1.0" encoding="UTF-8"?>

<!-- generated on 2026-02-23 13:56:36 by Eclipse SUMO sumo Version 1.24.0
<sumoConfiguration xmlns:xsi="http://www.w3.org/2001/XMLSchema-instance" xsi:noNamespaceSchemaLocation="http://sumo.dlr.de/xsd/sumoConfiguration.xsd">

    <input>
        <net-file value="C:\Users\Pedro\AppData\Local\Temp\tmpzlvagpho\mapa.net.xml"/>
        <route-files value="C:\Users\Pedro\AppData\Local\Temp\tmpzlvagpho\mapa.rou.xml"/>
    </input>

    <output>
        <emission-output value="emisiones_por_calle.xml"/>
        <emission-output.step-scaled value="true"/>
        <tripinfo-output value="tripinfo.xml"/>
        <statistic-output value="stats.xml"/>
    </output>

    <time>
        <begin value="0"/>
        <end value="3600"/>
        <step-length value="0.1"/>
    </time>

    <processing>
        <ignore-route-errors value="true"/>
    </processing>

    <routing>
        <device.rerouting.probability value="1.0"/>
        <device.rerouting.period value="1"/>
        <device.rerouting.pre-period value="0"/>
    </routing>

    <report>
        <no-warnings value="true"/>
        <duration-log.statistics value="true"/>
        <no-step-log value="true"/>
    </report>

    <traci_server>
        <remote-port value="61548"/>
    </traci_server>

</sumoConfiguration>
-->

<tripinfos xmlns:xsi="http://www.w3.org/2001/XMLSchema-instance" xsi:noNamespaceSchemaLocation="http://sumo.dlr.de/xsd/tripinfo_file.xsd">
    <tripinfo id="4" depart="14.40" departLane="163702428_0" departPos="0.20" departSpeed="0.00" departDelay="0.00" arrival="27.40" arrivalLane="1153591007#0_0" arrivalPos="6.20" arrivalSpeed="8.52" duration="13.00" routeLength="84.73" waitingTime="0.00" waitingCount="0" stopTime="0.00" timeLoss="3.90" rerouteNo="0" devices="tripinfo_4 routing_4 emissions_4" vType="DEFAULT_VEHTYPE" speedFactor="1.03" vaporized="">
        <emissions CO_abs="126.22" CO2_abs="41849.16" HC_abs="0.83" PMx_abs="1.98" NOx_abs="12.10" fuel_abs="13566.72" electricity_abs="0.00"/>
    </tripinfo>
    <tripinfo id="2" depart="7.20" departLane="410828248#0_0" departPos="5.10" departSpeed="0.00" departDelay="0.00" arrival="42.10" arrivalLane="188258576#1_0" arrivalPos="90.50" arrivalSpeed="8.31" duration="34.90" routeLength="319.30" waitingTime="0.00" waitingCount="0" stopTime="0.00" timeLoss="3.69" rerouteNo="0" devices="tripinfo_2 routing_2 emissions_2" vType="DEFAULT_VEHTYPE" speedFactor="1.01" vaporized="">
        <emissions CO_abs="331.43" CO2_abs="81143.76" HC_abs="2.20" PMx_abs="6.67" NOx_abs="26.61" fuel_abs="26305.62" electricity_abs="0.00"/>
    </tripinfo>
    <tripinfo id="5" depart="18.00" departLane="134780129#0_0" departPos="5.10" departSpeed="0.00" departDelay="0.00" arrival="42.10" arrivalLane="188258573#1_0" arrivalPos="4.38" arrivalSpeed="11.46" duration="24.10" routeLength="239.60" waitingTime="0.00" waitingCount="0" stopTime="0.00" timeLoss="2.24" rerouteNo="0" devices="tripinfo_5 routing_5 emissions_5" vType="DEFAULT_VEHTYPE" speedFactor="0.83" vaporized="">
        <emissions CO_abs="244.65" CO2_abs="61255.05" HC_abs="1.63" PMx_abs="5.24" NOx_abs="19.68" fuel_abs="19857.96" electricity_abs="0.00"/>
    </tripinfo>
    <tripinfo id="0" depart="0.00" departLane="23684197#0_0" departPos="5.10" departSpeed="0.00" departDelay="0.00" arrival="45.10" arrivalLane="1153591007#0_0" arrivalPos="6.20" arrivalSpeed="8.72" duration="45.10" routeLength="502.67" waitingTime="0.00" waitingCount="0" stopTime="0.00" timeLoss="6.26" rerouteNo="0" devices="tripinfo_0 routing_0 emissions_0" vType="DEFAULT_VEHTYPE" speedFactor="1.06" vaporized="">
        <emissions CO_abs="694.91" CO2_abs="130569.25" HC_abs="4.63" PMx_abs="10.96" NOx_abs="42.63" fuel_abs="42328.54" electricity_abs="0.00"/>
    </tripinfo>
    <tripinfo id="7" depart="25.20" departLane="134780129#1_0" departPos="0.20" departSpeed="0.00" departDelay="0.00" arrival="48.30" arrivalLane="188258573#2_0" arrivalPos="12.70" arrivalSpeed="12.18" duration="23.10" routeLength="246.69" waitingTime="0.00" waitingCount="0" stopTime="0.00" timeLoss="2.40" rerouteNo="0" devices="tripinfo_7 routing_7 emissions_7" vType="DEFAULT_VEHTYPE" speedFactor="0.89" vaporized="">
        <emissions CO_abs="280.92" CO2_abs="63061.62" HC_abs="1.87" PMx_abs="5.55" NOx_abs="20.39" fuel_abs="20443.61" electricity_abs="0.00"/>
    </tripinfo>
    <tripinfo id="3" depart="10.80" departLane="83338103#0_0" departPos="5.10" departSpeed="0.00" departDelay="0.00" arrival="51.30" arrivalLane="1185105484#1_0" arrivalPos="33.48" arrivalSpeed="8.95" duration="40.50" routeLength="379.84" waitingTime="0.00" waitingCount="0" stopTime="0.00" timeLoss="5.28" rerouteNo="0" devices="tripinfo_3 routing_3 emissions_3" vType="DEFAULT_VEHTYPE" speedFactor="1.08" vaporized="">
        <emissions CO_abs="471.68" CO2_abs="104929.45" HC_abs="3.13" PMx_abs="8.16" NOx_abs="34.05" fuel_abs="34016.54" electricity_abs="0.00"/>
    </tripinfo>
    <tripinfo id="9" depart="32.40" departLane="83338103#0_0" departPos="5.10" departSpeed="0.00" departDelay="0.00" arrival="58.60" arrivalLane="163702428_0" arrivalPos="0.20" arrivalSpeed="4.84" duration="26.20" routeLength="224.63" waitingTime="0.00" waitingCount="0" stopTime="0.00" timeLoss="4.75" rerouteNo="0" devices="tripinfo_9 routing_9 emissions_9" vType="DEFAULT_VEHTYPE" speedFactor="0.86" vaporized="">
        <emissions CO_abs="276.80" CO2_abs="70171.05" HC_abs="1.83" PMx_abs="4.70" NOx_abs="21.81" fuel_abs="22748.30" electricity_abs="0.00"/>
    </tripinfo>
    <tripinfo id="11" depart="39.60" departLane="159381333#4_0" departPos="3.55" departSpeed="0.00" departDelay="0.00" arrival="67.80" arrivalLane="188258573#2_1" arrivalPos="12.70" arrivalSpeed="14.23" duration="28.20" routeLength="322.29" waitingTime="0.00" waitingCount="0" stopTime="0.00" timeLoss="3.46" rerouteNo="0" devices="tripinfo_11 routing_11 emissions_11" vType="DEFAULT_VEHTYPE" speedFactor="1.03" vaporized="">
        <emissions CO_abs="453.22" CO2_abs="85867.07" HC_abs="3.02" PMx_abs="7.57" NOx_abs="28.01" fuel_abs="27836.77" electricity_abs="0.00"/>
    </tripinfo>
    <tripinfo id="6" depart="21.60" departLane="23684197#0_0" departPos="5.10" departSpeed="0.00" departDelay="0.00" arrival="73.90" arrivalLane="188258573#2_0" arrivalPos="12.70" arrivalSpeed="14.46" duration="52.30" routeLength="654.59" waitingTime="0.00" waitingCount="0" stopTime="0.00" timeLoss="5.34" rerouteNo="0" devices="tripinfo_6 routing_6 emissions_6" vType="DEFAULT_VEHTYPE" speedFactor="1.05" vaporized="">
        <emissions CO_abs="924.33" CO2_abs="152962.35" HC_abs="6.17" PMx_abs="14.83" NOx_abs="51.69" fuel_abs="49588.14" electricity_abs="0.00"/>
    </tripinfo>
    <tripinfo id="12" depart="43.20" departLane="410828248#0_0" departPos="5.10" departSpeed="0.00" departDelay="0.00" arrival="75.30" arrivalLane="1185105484#0_0" arrivalPos="73.53" arrivalSpeed="8.61" duration="32.10" routeLength="296.79" waitingTime="0.00" waitingCount="0" stopTime="0.00" timeLoss="4.16" rerouteNo="0" devices="tripinfo_12 routing_12 emissions_12" vType="DEFAULT_VEHTYPE" speedFactor="1.05" vaporized="">
        <emissions CO_abs="359.87" CO2_abs="82301.32" HC_abs="2.39" PMx_abs="6.37" NOx_abs="26.66" fuel_abs="26680.83" electricity_abs="0.00"/>
    </tripinfo>
    <tripinfo id="10" depart="36.00" departLane="-23758276_0" departPos="5.10" departSpeed="0.00" departDelay="0.00" arrival="82.70" arrivalLane="1185105484#1_0" arrivalPos="33.48" arrivalSpeed="8.97" duration="46.70" routeLength="379.76" waitingTime="0.00" waitingCount="0" stopTime="0.00" timeLoss="6.16" rerouteNo="0" devices="tripinfo_10 routing_10 emissions_10" vType="DEFAULT_VEHTYPE" speedFactor="1.09" vaporized="">
        <emissions CO_abs="459.27" CO2_abs="124260.34" HC_abs="3.04" PMx_abs="8.05" NOx_abs="38.77" fuel_abs="40283.26" electricity_abs="0.00"/>
    </tripinfo>
    <tripinfo id="1" depart="3.60" departLane="159381333#0_0" departPos="5.10" departSpeed="0.00" departDelay="0.00" arrival="83.40" arrivalLane="134780131#3_0" arrivalPos="105.59" arrivalSpeed="7.78" duration="79.80" routeLength="707.89" waitingTime="0.00" waitingCount="0" stopTime="0.00" timeLoss="5.29" rerouteNo="0" devices="tripinfo_1 routing_1 emissions_1" vType="DEFAULT_VEHTYPE" speedFactor="0.94" vaporized="">
        <emissions CO_abs="583.83" CO2_abs="162961.24" HC_abs="3.89" PMx_abs="14.17" NOx_abs="53.81" fuel_abs="52829.83" electricity_abs="0.00"/>
    </tripinfo>
    <tripinfo id="8" depart="28.80" departLane="159381333#0_0" departPos="5.10" departSpeed="0.00" departDelay="0.00" arrival="86.20" arrivalLane="134780131#1_0" arrivalPos="40.26" arrivalSpeed="7.79" duration="57.40" routeLength="511.78" waitingTime="0.50" waitingCount="1" stopTime="0.00" timeLoss="7.93" rerouteNo="0" devices="tripinfo_8 routing_8 emissions_8" vType="DEFAULT_VEHTYPE" speedFactor="0.94" vaporized="">
        <emissions CO_abs="510.28" CO2_abs="133730.44" HC_abs="3.40" PMx_abs="10.72" NOx_abs="43.01" fuel_abs="43353.38" electricity_abs="0.00"/>
    </tripinfo>
    <tripinfo id="17" depart="61.20" departLane="99206408_0" departPos="1.21" departSpeed="0.00" departDelay="0.00" arrival="90.90" arrivalLane="188258576#1_0" arrivalPos="90.50" arrivalSpeed="7.81" duration="29.70" routeLength="214.28" waitingTime="0.10" waitingCount="1" stopTime="0.00" timeLoss="2.18" rerouteNo="0" devices="tripinfo_17 routing_17 emissions_17" vType="DEFAULT_VEHTYPE" speedFactor="0.94" vaporized="">
        <emissions CO_abs="136.00" CO2_abs="57839.04" HC_abs="0.90" PMx_abs="3.96" NOx_abs="18.04" fuel_abs="18750.54" electricity_abs="0.00"/>
    </tripinfo>
    <tripinfo id="18" depart="64.80" departLane="159381333#0_0" departPos="5.10" departSpeed="0.00" departDelay="0.00" arrival="91.80" arrivalLane="1426601359_0" arrivalPos="0.20" arrivalSpeed="7.69" duration="27.00" routeLength="299.91" waitingTime="0.00" waitingCount="0" stopTime="0.00" timeLoss="3.84" rerouteNo="0" devices="tripinfo_18 routing_18 emissions_18" vType="DEFAULT_VEHTYPE" speedFactor="0.94" vaporized="">
        <emissions CO_abs="381.77" CO2_abs="75730.05" HC_abs="2.54" PMx_abs="6.47" NOx_abs="24.62" fuel_abs="24550.51" electricity_abs="0.00"/>
    </tripinfo>
    <tripinfo id="21" depart="75.60" departLane="208140905#1_0" departPos="0.17" departSpeed="0.00" departDelay="0.00" arrival="94.10" arrivalLane="410828247_0" arrivalPos="0.20" arrivalSpeed="8.61" duration="18.50" routeLength="142.67" waitingTime="0.60" waitingCount="1" stopTime="0.00" timeLoss="8.32" rerouteNo="0" devices="tripinfo_21 routing_21 emissions_21" vType="DEFAULT_VEHTYPE" speedFactor="1.01" vaporized="">
        <emissions CO_abs="276.83" CO2_abs="64989.52" HC_abs="1.83" PMx_abs="3.41" NOx_abs="19.44" fuel_abs="21068.36" electricity_abs="0.00"/>
    </tripinfo>
    <tripinfo id="23" depart="82.80" departLane="99206426_0" departPos="5.10" departSpeed="0.00" departDelay="0.00" arrival="112.10" arrivalLane="188258573#1_0" arrivalPos="4.38" arrivalSpeed="12.30" duration="29.30" routeLength="253.65" waitingTime="2.20" waitingCount="1" stopTime="0.00" timeLoss="7.00" rerouteNo="0" devices="tripinfo_23 routing_23 emissions_23" vType="DEFAULT_VEHTYPE" speedFactor="0.89" vaporized="">
        <emissions CO_abs="288.06" CO2_abs="77862.74" HC_abs="1.92" PMx_abs="5.75" NOx_abs="24.49" fuel_abs="25241.81" electricity_abs="0.00"/>
    </tripinfo>
    <tripinfo id="14" depart="50.40" departLane="159381333#3_0" departPos="5.10" departSpeed="0.00" departDelay="0.00" arrival="115.90" arrivalLane="134780131#3_0" arrivalPos="105.59" arrivalSpeed="8.15" duration="65.50" routeLength="489.12" waitingTime="1.10" waitingCount="1" stopTime="0.00" timeLoss="10.80" rerouteNo="0" devices="tripinfo_14 routing_14 emissions_14" vType="DEFAULT_VEHTYPE" speedFactor="0.99" vaporized="">
        <emissions CO_abs="441.93" CO2_abs="141382.41" HC_abs="2.93" PMx_abs="9.49" NOx_abs="44.69" fuel_abs="45834.02" electricity_abs="0.00"/>
    </tripinfo>
    <tripinfo id="28" depart="100.80" departLane="83338103#1_0" departPos="5.10" departSpeed="0.00" departDelay="0.00" arrival="119.70" arrivalLane="410828247_0" arrivalPos="0.20" arrivalSpeed="15.63" duration="18.90" routeLength="235.06" waitingTime="0.00" waitingCount="0" stopTime="0.00" timeLoss="3.89" rerouteNo="0" devices="tripinfo_28 routing_28 emissions_28" vType="DEFAULT_VEHTYPE" speedFactor="1.13" vaporized="">
        <emissions CO_abs="443.34" CO2_abs="69951.48" HC_abs="2.96" PMx_abs="5.91" NOx_abs="23.17" fuel_abs="22677.13" electricity_abs="0.00"/>
    </tripinfo>
    <tripinfo id="27" depart="97.20" departLane="99206426_0" departPos="5.10" departSpeed="0.00" departDelay="0.00" arrival="122.10" arrivalLane="188258573#2_1" arrivalPos="12.70" arrivalSpeed="13.09" duration="24.90" routeLength="270.99" waitingTime="0.00" waitingCount="0" stopTime="0.00" timeLoss="2.67" rerouteNo="0" devices="tripinfo_27 routing_27 emissions_27" vType="DEFAULT_VEHTYPE" speedFactor="0.95" vaporized="">
        <emissions CO_abs="332.62" CO2_abs="70150.72" HC_abs="2.22" PMx_abs="6.27" NOx_abs="22.81" fuel_abs="22741.79" electricity_abs="0.00"/>
    </tripinfo>
    <tripinfo id="26" depart="93.60" departLane="410828249#1_0" departPos="5.10" departSpeed="0.00" departDelay="0.00" arrival="123.10" arrivalLane="163710823#3_0" arrivalPos="64.61" arrivalSpeed="12.66" duration="29.50" routeLength="307.93" waitingTime="0.00" waitingCount="0" stopTime="0.00" timeLoss="4.52" rerouteNo="0" devices="tripinfo_26 routing_26 emissions_26" vType="DEFAULT_VEHTYPE" speedFactor="0.92" vaporized="">
        <emissions CO_abs="379.86" CO2_abs="82950.25" HC_abs="2.53" PMx_abs="6.94" NOx_abs="26.73" fuel_abs="26891.20" electricity_abs="0.00"/>
    </tripinfo>
    <tripinfo id="13" depart="46.80" departLane="23684197#0_0" departPos="5.10" departSpeed="0.00" departDelay="0.00" arrival="124.50" arrivalLane="163710823#2_0" arrivalPos="192.81" arrivalSpeed="14.56" duration="77.70" routeLength="814.24" waitingTime="3.40" waitingCount="1" stopTime="0.00" timeLoss="22.57" rerouteNo="0" devices="tripinfo_13 routing_13 emissions_13" vType="DEFAULT_VEHTYPE" speedFactor="1.12" vaporized="">
        <emissions CO_abs="1236.22" CO2_abs="223050.04" HC_abs="8.22" PMx_abs="17.17" NOx_abs="73.34" fuel_abs="72309.32" electricity_abs="0.00"/>
    </tripinfo>
    <tripinfo id="20" depart="72.00" departLane="1426601359_0" departPos="0.20" departSpeed="0.00" departDelay="0.00" arrival="126.70" arrivalLane="134780131#3_1" arrivalPos="105.59" arrivalSpeed="8.45" duration="54.70" routeLength="407.98" waitingTime="0.00" waitingCount="0" stopTime="0.00" timeLoss="7.21" rerouteNo="0" devices="tripinfo_20 routing_20 emissions_20" vType="DEFAULT_VEHTYPE" speedFactor="1.02" vaporized="">
        <emissions CO_abs="320.83" CO2_abs="120927.48" HC_abs="2.13" PMx_abs="8.41" NOx_abs="37.66" fuel_abs="39202.83" electricity_abs="0.00"/>
    </tripinfo>
    <tripinfo id="15" depart="54.00" departLane="23684197#0_0" departPos="5.10" departSpeed="0.00" departDelay="0.00" arrival="127.70" arrivalLane="188258576#1_0" arrivalPos="90.50" arrivalSpeed="7.61" duration="73.70" routeLength="650.02" waitingTime="1.70" waitingCount="1" stopTime="0.00" timeLoss="10.18" rerouteNo="0" devices="tripinfo_15 routing_15 emissions_15" vType="DEFAULT_VEHTYPE" speedFactor="0.93" vaporized="">
        <emissions CO_abs="632.05" CO2_abs="165420.00" HC_abs="4.20" PMx_abs="12.96" NOx_abs="53.44" fuel_abs="53626.69" electricity_abs="0.00"/>
    </tripinfo>
    <tripinfo id="16" depart="57.60" departLane="-23758276_0" departPos="5.10" departSpeed="0.00" departDelay="0.00" arrival="128.30" arrivalLane="163710823#3_0" arrivalPos="64.61" arrivalSpeed="12.20" duration="70.70" routeLength="594.07" waitingTime="4.80" waitingCount="1" stopTime="0.00" timeLoss="14.22" rerouteNo="0" devices="tripinfo_16 routing_16 emissions_16" vType="DEFAULT_VEHTYPE" speedFactor="0.88" vaporized="">
        <emissions CO_abs="721.72" CO2_abs="181863.27" HC_abs="4.79" PMx_abs="12.99" NOx_abs="58.41" fuel_abs="58957.32" electricity_abs="0.00"/>
    </tripinfo>
    <tripinfo id="22" depart="79.20" departLane="163702424#1_0" departPos="5.10" departSpeed="0.00" departDelay="0.00" arrival="128.50" arrivalLane="134780131#3_0" arrivalPos="105.59" arrivalSpeed="8.12" duration="49.30" routeLength="333.60" waitingTime="3.10" waitingCount="1" stopTime="0.00" timeLoss="8.57" rerouteNo="0" devices="tripinfo_22 routing_22 emissions_22" vType="DEFAULT_VEHTYPE" speedFactor="0.97" vaporized="">
        <emissions CO_abs="199.67" CO2_abs="94478.34" HC_abs="1.33" PMx_abs="6.45" NOx_abs="30.05" fuel_abs="30628.49" electricity_abs="0.00"/>
    </tripinfo>
    <tripinfo id="32" depart="115.20" departLane="188258533#0_0" departPos="3.18" departSpeed="0.00" departDelay="0.00" arrival="138.80" arrivalLane="410828249#1_1" arrivalPos="36.48" arrivalSpeed="13.90" duration="23.60" routeLength="242.17" waitingTime="0.00" waitingCount="0" stopTime="0.00" timeLoss="4.78" rerouteNo="0" devices="tripinfo_32 routing_32 emissions_32" vType="DEFAULT_VEHTYPE" speedFactor="1.01" vaporized="">
        <emissions CO_abs="411.55" CO2_abs="80534.02" HC_abs="2.73" PMx_abs="6.01" NOx_abs="25.84" fuel_abs="26107.83" electricity_abs="0.00"/>
    </tripinfo>
    <tripinfo id="24" depart="86.40" departLane="-23758276_0" departPos="5.10" departSpeed="0.00" departDelay="0.00" arrival="139.20" arrivalLane="1185105484#0_0" arrivalPos="73.53" arrivalSpeed="6.86" duration="52.80" routeLength="342.48" waitingTime="0.00" waitingCount="0" stopTime="0.00" timeLoss="4.66" rerouteNo="0" devices="tripinfo_24 routing_24 emissions_24" vType="DEFAULT_VEHTYPE" speedFactor="0.83" vaporized="">
        <emissions CO_abs="274.89" CO2_abs="112253.00" HC_abs="1.82" PMx_abs="6.91" NOx_abs="35.13" fuel_abs="36390.74" electricity_abs="0.00"/>
    </tripinfo>
    <tripinfo id="30" depart="108.00" departLane="1426601359_0" departPos="0.20" departSpeed="0.00" departDelay="0.00" arrival="140.90" arrivalLane="188258576#1_0" arrivalPos="90.50" arrivalSpeed="9.74" duration="32.90" routeLength="213.72" waitingTime="3.10" waitingCount="2" stopTime="0.00" timeLoss="11.10" rerouteNo="0" devices="tripinfo_30 routing_30 emissions_30" vType="DEFAULT_VEHTYPE" speedFactor="1.18" vaporized="">
        <emissions CO_abs="181.03" CO2_abs="76611.27" HC_abs="1.20" PMx_abs="4.38" NOx_abs="23.05" fuel_abs="24836.00" electricity_abs="0.00"/>
    </tripinfo>
    <tripinfo id="19" depart="68.40" departLane="23684197#0_0" departPos="5.10" departSpeed="0.00" departDelay="0.00" arrival="142.80" arrivalLane="163710823#3_0" arrivalPos="64.61" arrivalSpeed="16.04" duration="74.40" routeLength="879.10" waitingTime="1.70" waitingCount="1" stopTime="0.00" timeLoss="16.98" rerouteNo="0" devices="tripinfo_19 routing_19 emissions_19" vType="DEFAULT_VEHTYPE" speedFactor="1.16" vaporized="">
        <emissions CO_abs="1662.15" CO2_abs="251530.84" HC_abs="11.06" PMx_abs="20.49" NOx_abs="84.38" fuel_abs="81542.29" electricity_abs="0.00"/>
    </tripinfo>
    <tripinfo id="33" depart="118.80" departLane="83338103#0_0" departPos="5.10" departSpeed="0.00" departDelay="0.00" arrival="143.40" arrivalLane="410828247_0" arrivalPos="0.20" arrivalSpeed="16.27" duration="24.60" routeLength="335.32" waitingTime="0.00" waitingCount="0" stopTime="0.00" timeLoss="3.92" rerouteNo="0" devices="tripinfo_33 routing_33 emissions_33" vType="DEFAULT_VEHTYPE" speedFactor="1.17" vaporized="">
        <emissions CO_abs="587.07" CO2_abs="86468.75" HC_abs="3.93" PMx_abs="8.50" NOx_abs="29.38" fuel_abs="28031.82" electricity_abs="0.00"/>
    </tripinfo>
    <tripinfo id="29" depart="104.40" departLane="23684197#2_0" departPos="5.10" departSpeed="0.00" departDelay="0.00" arrival="143.60" arrivalLane="188258573#2_0" arrivalPos="12.70" arrivalSpeed="12.86" duration="39.20" routeLength="420.05" waitingTime="0.00" waitingCount="0" stopTime="0.00" timeLoss="4.65" rerouteNo="0" devices="tripinfo_29 routing_29 emissions_29" vType="DEFAULT_VEHTYPE" speedFactor="0.93" vaporized="">
        <emissions CO_abs="551.02" CO2_abs="110023.43" HC_abs="3.67" PMx_abs="9.15" NOx_abs="35.81" fuel_abs="35667.92" electricity_abs="0.00"/>
    </tripinfo>
    <tripinfo id="25" depart="90.00" departLane="-23758276_0" departPos="5.10" departSpeed="0.00" departDelay="0.00" arrival="149.10" arrivalLane="188258576#1_0" arrivalPos="90.50" arrivalSpeed="7.23" duration="59.10" routeLength="364.99" waitingTime="0.90" waitingCount="3" stopTime="0.00" timeLoss="10.88" rerouteNo="0" devices="tripinfo_25 routing_25 emissions_25" vType="DEFAULT_VEHTYPE" speedFactor="0.87" vaporized="">
        <emissions CO_abs="279.43" CO2_abs="127343.08" HC_abs="1.85" PMx_abs="7.21" NOx_abs="38.43" fuel_abs="41282.45" electricity_abs="0.00"/>
    </tripinfo>
    <tripinfo id="42" depart="152.60" departLane="188258588#0_0" departPos="5.10" departSpeed="0.00" departDelay="1.40" arrival="163.60" arrivalLane="208140904#1_1" arrivalPos="0.79" arrivalSpeed="15.16" duration="11.00" routeLength="66.72" waitingTime="0.00" waitingCount="0" stopTime="0.00" timeLoss="5.39" rerouteNo="0" devices="tripinfo_42 routing_42 emissions_42" vType="DEFAULT_VEHTYPE" speedFactor="1.09" vaporized="">
        <emissions CO_abs="242.02" CO2_abs="48392.23" HC_abs="1.60" PMx_abs="2.17" NOx_abs="14.61" fuel_abs="15687.81" electricity_abs="0.00"/>
    </tripinfo>
    <tripinfo id="36" depart="129.60" departLane="410828248#0_0" departPos="5.10" departSpeed="0.00" departDelay="0.00" arrival="164.70" arrivalLane="188258573#2_0" arrivalPos="12.70" arrivalSpeed="13.40" duration="35.10" routeLength="428.44" waitingTime="0.00" waitingCount="0" stopTime="0.00" timeLoss="3.39" rerouteNo="0" devices="tripinfo_36 routing_36 emissions_36" vType="DEFAULT_VEHTYPE" speedFactor="0.97" vaporized="">
        <emissions CO_abs="495.98" CO2_abs="92173.54" HC_abs="3.32" PMx_abs="9.38" NOx_abs="31.00" fuel_abs="29881.33" electricity_abs="0.00"/>
    </tripinfo>
    <tripinfo id="41" depart="147.60" departLane="1426601359_0" departPos="0.20" departSpeed="0.00" departDelay="0.00" arrival="165.30" arrivalLane="410828247_0" arrivalPos="0.20" arrivalSpeed="13.29" duration="17.70" routeLength="177.40" waitingTime="0.00" waitingCount="0" stopTime="0.00" timeLoss="2.89" rerouteNo="0" devices="tripinfo_41 routing_41 emissions_41" vType="DEFAULT_VEHTYPE" speedFactor="0.96" vaporized="">
        <emissions CO_abs="279.39" CO2_abs="58772.24" HC_abs="1.86" PMx_abs="4.30" NOx_abs="18.55" fuel_abs="19052.98" electricity_abs="0.00"/>
    </tripinfo>
    <tripinfo id="31" depart="111.60" departLane="-23758276_0" departPos="5.10" departSpeed="0.00" departDelay="0.00" arrival="166.00" arrivalLane="163710823#3_0" arrivalPos="64.61" arrivalSpeed="15.91" duration="54.40" routeLength="594.07" waitingTime="0.70" waitingCount="1" stopTime="0.00" timeLoss="11.37" rerouteNo="0" devices="tripinfo_31 routing_31 emissions_31" vType="DEFAULT_VEHTYPE" speedFactor="1.15" vaporized="">
        <emissions CO_abs="1105.03" CO2_abs="185331.37" HC_abs="7.35" PMx_abs="14.14" NOx_abs="60.65" fuel_abs="60081.40" electricity_abs="0.00"/>
    </tripinfo>
    <tripinfo id="37" depart="133.20" departLane="410828248#1_0" departPos="5.10" departSpeed="0.00" departDelay="0.00" arrival="166.20" arrivalLane="188258573#2_0" arrivalPos="12.70" arrivalSpeed="16.30" duration="33.00" routeLength="421.19" waitingTime="0.00" waitingCount="0" stopTime="0.00" timeLoss="7.21" rerouteNo="0" devices="tripinfo_37 routing_37 emissions_37" vType="DEFAULT_VEHTYPE" speedFactor="1.18" vaporized="">
        <emissions CO_abs="710.76" CO2_abs="105539.11" HC_abs="4.73" PMx_abs="9.46" NOx_abs="36.02" fuel_abs="34214.14" electricity_abs="0.00"/>
    </tripinfo>
    <tripinfo id="40" depart="144.00" departLane="188258555#1_0" departPos="0.20" departSpeed="0.00" departDelay="0.00" arrival="168.30" arrivalLane="188258573#2_1" arrivalPos="12.70" arrivalSpeed="14.23" duration="24.30" routeLength="294.21" waitingTime="0.10" waitingCount="1" stopTime="0.00" timeLoss="2.30" rerouteNo="0" devices="tripinfo_40 routing_40 emissions_40" vType="DEFAULT_VEHTYPE" speedFactor="1.03" vaporized="">
        <emissions CO_abs="422.20" CO2_abs="74855.03" HC_abs="2.82" PMx_abs="6.95" NOx_abs="24.79" fuel_abs="24266.84" electricity_abs="0.00"/>
    </tripinfo>
    <tripinfo id="48" depart="172.80" departLane="134780129#0_0" departPos="5.10" departSpeed="0.00" departDelay="0.00" arrival="174.80" arrivalLane="134780129#0_0" arrivalPos="9.72" arrivalSpeed="4.32" duration="2.00" routeLength="4.62" waitingTime="0.00" waitingCount="0" stopTime="0.00" timeLoss="1.35" rerouteNo="0" devices="tripinfo_48 routing_48 emissions_48" vType="DEFAULT_VEHTYPE" speedFactor="0.88" vaporized="">
        <emissions CO_abs="5.42" CO2_abs="7517.80" HC_abs="0.04" PMx_abs="0.13" NOx_abs="1.73" fuel_abs="2437.06" electricity_abs="0.00"/>
    </tripinfo>
    <tripinfo id="35" depart="126.00" departLane="23684197#0_0" departPos="5.10" departSpeed="0.00" departDelay="0.00" arrival="175.40" arrivalLane="134780131#0_0" arrivalPos="43.56" arrivalSpeed="8.43" duration="49.40" routeLength="506.78" waitingTime="0.60" waitingCount="1" stopTime="0.00" timeLoss="7.61" rerouteNo="0" devices="tripinfo_35 routing_35 emissions_35" vType="DEFAULT_VEHTYPE" speedFactor="1.02" vaporized="">
        <emissions CO_abs="590.08" CO2_abs="126819.35" HC_abs="3.94" PMx_abs="10.90" NOx_abs="41.09" fuel_abs="41112.85" electricity_abs="0.00"/>
    </tripinfo>
    <tripinfo id="34" depart="122.40" departLane="159381333#0_0" departPos="5.10" departSpeed="0.00" departDelay="0.00" arrival="180.00" arrivalLane="188258576#1_1" arrivalPos="90.50" arrivalSpeed="8.23" duration="57.60" routeLength="513.63" waitingTime="1.00" waitingCount="1" stopTime="0.00" timeLoss="10.08" rerouteNo="0" devices="tripinfo_34 routing_34 emissions_34" vType="DEFAULT_VEHTYPE" speedFactor="0.99" vaporized="">
        <emissions CO_abs="524.99" CO2_abs="135282.35" HC_abs="3.50" PMx_abs="10.47" NOx_abs="42.85" fuel_abs="43856.36" electricity_abs="0.00"/>
    </tripinfo>
    <tripinfo id="39" depart="140.40" departLane="410828248#0_0" departPos="5.10" departSpeed="0.00" departDelay="0.00" arrival="181.60" arrivalLane="1185105484#1_0" arrivalPos="33.48" arrivalSpeed="7.49" duration="41.20" routeLength="334.07" waitingTime="0.00" waitingCount="0" stopTime="0.00" timeLoss="3.78" rerouteNo="0" devices="tripinfo_39 routing_39 emissions_39" vType="DEFAULT_VEHTYPE" speedFactor="0.90" vaporized="">
        <emissions CO_abs="277.45" CO2_abs="86638.29" HC_abs="1.84" PMx_abs="6.77" NOx_abs="28.07" fuel_abs="28086.89" electricity_abs="0.00"/>
    </tripinfo>
    <tripinfo id="38" depart="136.80" departLane="159381333#0_0" departPos="5.10" departSpeed="0.00" departDelay="0.00" arrival="186.60" arrivalLane="1185105484#1_0" arrivalPos="33.48" arrivalSpeed="9.06" duration="49.80" routeLength="528.40" waitingTime="0.00" waitingCount="0" stopTime="0.00" timeLoss="4.88" rerouteNo="0" devices="tripinfo_38 routing_38 emissions_38" vType="DEFAULT_VEHTYPE" speedFactor="1.10" vaporized="">
        <emissions CO_abs="637.72" CO2_abs="129156.25" HC_abs="4.25" PMx_abs="11.77" NOx_abs="42.85" fuel_abs="41870.58" electricity_abs="0.00"/>
    </tripinfo>
    <tripinfo id="43" depart="154.80" departLane="99206426_0" departPos="5.10" departSpeed="0.00" departDelay="0.00" arrival="188.60" arrivalLane="188258576#1_0" arrivalPos="90.50" arrivalSpeed="8.61" duration="33.80" routeLength="262.28" waitingTime="0.00" waitingCount="0" stopTime="0.00" timeLoss="4.22" rerouteNo="0" devices="tripinfo_43 routing_43 emissions_43" vType="DEFAULT_VEHTYPE" speedFactor="1.04" vaporized="">
        <emissions CO_abs="236.85" CO2_abs="79304.18" HC_abs="1.57" PMx_abs="5.46" NOx_abs="24.80" fuel_abs="25709.20" electricity_abs="0.00"/>
    </tripinfo>
    <tripinfo id="47" depart="169.20" departLane="-1185105484#1_0" departPos="5.10" departSpeed="0.00" departDelay="0.00" arrival="198.90" arrivalLane="188258576#1_0" arrivalPos="90.50" arrivalSpeed="7.44" duration="29.70" routeLength="206.61" waitingTime="0.00" waitingCount="0" stopTime="0.00" timeLoss="2.03" rerouteNo="0" devices="tripinfo_47 routing_47 emissions_47" vType="DEFAULT_VEHTYPE" speedFactor="0.90" vaporized="">
        <emissions CO_abs="115.27" CO2_abs="56335.66" HC_abs="0.77" PMx_abs="3.97" NOx_abs="17.77" fuel_abs="18263.19" electricity_abs="0.00"/>
    </tripinfo>
    <tripinfo id="53" depart="190.80" departLane="163702424#1_0" departPos="5.10" departSpeed="0.00" departDelay="0.00" arrival="205.50" arrivalLane="163702428_0" arrivalPos="0.20" arrivalSpeed="6.42" duration="14.70" routeLength="95.43" waitingTime="0.00" waitingCount="0" stopTime="0.00" timeLoss="6.33" rerouteNo="0" devices="tripinfo_53 routing_53 emissions_53" vType="DEFAULT_VEHTYPE" speedFactor="1.10" vaporized="">
        <emissions CO_abs="156.82" CO2_abs="46953.24" HC_abs="1.03" PMx_abs="1.99" NOx_abs="13.37" fuel_abs="15221.33" electricity_abs="0.00"/>
    </tripinfo>
    <tripinfo id="46" depart="165.60" departLane="134780131#0_0" departPos="5.10" departSpeed="0.00" departDelay="0.00" arrival="205.80" arrivalLane="134780131#3_0" arrivalPos="105.59" arrivalSpeed="8.24" duration="40.20" routeLength="284.32" waitingTime="0.90" waitingCount="1" stopTime="0.00" timeLoss="5.93" rerouteNo="0" devices="tripinfo_46 routing_46 emissions_46" vType="DEFAULT_VEHTYPE" speedFactor="1.00" vaporized="">
        <emissions CO_abs="178.30" CO2_abs="79339.59" HC_abs="1.18" PMx_abs="5.36" NOx_abs="24.62" fuel_abs="25720.64" electricity_abs="0.00"/>
    </tripinfo>
    <tripinfo id="45" depart="162.00" departLane="159381333#0_0" departPos="5.10" departSpeed="0.00" departDelay="0.00" arrival="214.10" arrivalLane="188258573#2_1" arrivalPos="12.70" arrivalSpeed="14.98" duration="52.10" routeLength="617.11" waitingTime="0.00" waitingCount="0" stopTime="0.00" timeLoss="9.30" rerouteNo="0" devices="tripinfo_45 routing_45 emissions_45" vType="DEFAULT_VEHTYPE" speedFactor="1.09" vaporized="">